{
  "elements": [
    {
      "atomicNumber": 106,
      "symbol": "Sg",
      "name": "Seaborgium",
      "group": 6,
      "period": 7,
      "atomicMass": 266,
      "electroNegativity": 1.3,
      "ionizationEnergy": 685,
      "density": 35,
      "meltingPoint": 2237,
      "boilingPoint": "unknown",
      "color": "Color.silver"
    }
  ]
}
