{
  "elements": [
    {
      "atomicNumber": 1,
      "symbol": "H",
      "name": "Hydrogen",
      "group": 1,
      "period": 1,
      "atomicMass": 1.008,
      "electroNegativity": 2.2,
      "ionizationEnergy": 1312,
      "density": 0.0899,
      "meltingPoint": 13.99,
      "boilingPoint": 20.28,
      "color": "Color.white"
    },
    {
      "atomicNumber": 2,
      "symbol": "He",
      "name": "Helium",
      "group": 18,
      "period": 1,
      "atomicMass": 4.003,
      "electroNegativity": null,
      "ionizationEnergy": 2372,
      "density": 0.1785,
      "meltingPoint": 0.95,
      "boilingPoint": 4.22,
      "color": "Color.white"
    },
    {
      "atomicNumber": 3,
      "symbol": "Li",
      "name": "Lithium",
      "group": 1,
      "period": 2,
      "atomicMass": 6.94,
      "electroNegativity": 0.98,
      "ionizationEnergy": 520,
      "density": 0.53,
      "meltingPoint": 453.65,
      "boilingPoint": 1615,
      "color": "Color.silver"
    },
    {
      "atomicNumber": 4,
      "symbol": "Be",
      "name": "Beryllium",
      "group": 2,
      "period": 2,
      "atomicMass": 9.012,
      "electroNegativity": 1.57,
      "ionizationEnergy": 900,
      "density": 1.85,
      "meltingPoint": 1560,
      "boilingPoint": 2742,
      "color": "Color.white"
    },
    {
      "atomicNumber": 5,
      "symbol": "B",
      "name": "Boron",
      "group": 13,
      "period": 2,
      "atomicMass": 10.81,
      "electroNegativity": 2.04,
      "ionizationEnergy": 801,
      "density": 2.34,
      "meltingPoint": 2365,
      "boilingPoint": 4275,
      "color": "Color.black"
    },
    {
      "atomicNumber": 6,
      "symbol": "C",
      "name": "Carbon",
      "group": 14,
      "period": 2,
      "atomicMass": 12.01,
      "electroNegativity": 2.55,
      "ionizationEnergy": 1086,
      "density": 2.267,
      "meltingPoint": 3915,
      "boilingPoint": 3915,
      "color": "Color.black"
    },
    {
      "atomicNumber": 7,
      "symbol": "N",
      "name": "Nitrogen",
      "group": 15,
      "period": 2,
      "atomicMass": 14.01,
      "electroNegativity": 3.04,
      "ionizationEnergy": 1402,
      "density": 1.251,

      "meltingPoint": 63.15,
      "boilingPoint": 77.36,
      "color": "Color.colorless"
    },
    {
      "atomicNumber": 9,
      "symbol": "F",
      "name": "Fluorine",
      "group": 17,
      "period": 2,
      "atomicMass": 18.99,
      "electroNegativity": 3.98,
      "ionizationEnergy": 1681,
      "density": 1.696,
      "meltingPoint": 53.53,
      "boilingPoint": 85.03,
      "color": "Color.paleYellow"
    },
    {
      "atomicNumber": 10,
      "symbol": "Ne",
      "name": "Neon",
      "group": 18,
      "period": 2,
      "atomicMass": 20.18,
      "electroNegativity": null,
      "ionizationEnergy": 2081,
      "density": 0.9002,
      "meltingPoint": 24.56,
      "boilingPoint": 27.07,
      "color": "Color.colorless"
    },
    {
      "atomicNumber": 11,
      "symbol": "Na",
      "name": "Sodium",
      "group": 1,
      "period": 3,
      "atomicMass": 22.99,
      "electroNegativity": 0.93,
      "ionizationEnergy": 496,
      "density": 0.968,
      "meltingPoint": 370.95,
      "boilingPoint": 1156,
      "color": "Color.silver"
    },
    {
      "atomicNumber": 12,
      "symbol": "Mg",
      "name": "Magnesium",
      "group": 2,
      "period": 3,
      "atomicMass": 24.31,
      "electroNegativity": 1.31,
      "ionizationEnergy": 737,
      "density": 1.738,
      "meltingPoint": 923,
      "boilingPoint": 1363,
      "color": "Color.silver"
    },
    {
      "atomicNumber": 13,
      "symbol": "Al",
      "name": "Aluminum",
      "group": 13,
      "period": 3,
      "atomicMass": 26.98,
      "electroNegativity": 1.61,
      "ionizationEnergy": 577,
      "density": 2.7,
      "meltingPoint": 933.47,
      "boilingPoint": 2792,
      "color": "Color.silver"
    },
    {
      "atomicNumber": 14,
      "symbol": "Si",
      "name": "Silicon",
      "group": 14,
      "period": 3,
      "atomicMass": 28.09,
      "electroNegativity": 1.9,
      "ionizationEnergy": 787,
      "density": 2.3296,
      "meltingPoint": 1687,
      "boilingPoint": 3538,
      "color": "Color.gray"
    },
    {
      "atomicNumber": 15,
      "symbol": "P",
      "name": "Phosphorus",
      "group": 15,
      "period": 3,
      "atomicMass": 30.97,
      "electroNegativity": 2.19,
      "ionizationEnergy": 1012,
      "density": 1.82,
      "meltingPoint": 317.3,
      "boilingPoint": 550,
      "color": "Color.white"
    },
    {
      "atomicNumber": 16,
      "symbol": "S",
      "name": "Sulfur",
      "group": 16,
      "period": 3,
      "atomicMass": 32.06,
      "electroNegativity": 2.58,
      "ionizationEnergy": 999,
      "density": 1.96,
      "meltingPoint": 388.36,
      "boilingPoint": 717.87,
      "color": "Color.yellow"
    },
    {
      "atomicNumber": 17,
      "symbol": "Cl",
      "name": "Chlorine",
      "group": 17,
      "period": 3,
      "atomicMass": 35.45,
      "electroNegativity": 3.16,
      "ionizationEnergy": 1251,
      "density": 3.214,
      "meltingPoint": 171.6,
      "boilingPoint": 239.11,
      "color": "Color.yellowishGreen"
    },
    {
      "atomicNumber": 18,
      "symbol": "Ar",
      "name": "Argon",
      "group": 18,
      "period": 3,
      "atomicMass": 39.95,
      "electroNegativity": null,
      "ionizationEnergy": 1520,
      "density": 1.784,
      "meltingPoint": 83.81,
      "boilingPoint": 87.3,
      "color": "Color.colorless"
    },
    {
      "atomicNumber": 19,
      "symbol": "K",
      "name": "Potassium",
      "group": 1,
      "period": 4,
      "atomicMass": 39.1,
      "electroNegativity": 0.82,
      "ionizationEnergy": 418,
      "density": 0.862,
      "meltingPoint": 336.53,
      "boilingPoint": 1032,
      "color": "Color.silver"
    },
    {
      "atomicNumber": 20,
      "symbol": "Ca",
      "name": "Calcium",
      "group": 2,
      "period": 4,
      "atomicMass": 40.08,
      "electroNegativity": 1,
      "ionizationEnergy": 589,
      "density": 1.54,
      "meltingPoint": 1115,
      "boilingPoint": 1757,
      "color": "Color.silver"
    },
    {
      "atomicNumber": 21,
      "symbol": "Sc",
      "name": "Scandium",
      "group": 3,
      "period": 4,
      "atomicMass": 44.96,
      "electroNegativity": 1.36,
      "ionizationEnergy": 633,
      "density": 2.985,
      "meltingPoint": 1814,
      "boilingPoint": 3109,
      "color": "Color.silver"
    },
    {
      "atomicNumber": 22,
      "symbol": "Ti",
      "name": "Titanium",
      "group": 4,
      "period": 4,
      "atomicMass": 47.87,
      "electroNegativity": 1.54,
      "meltingPoint": 1941,
      "boilingPoint": 3560,
      "color": "Color.silver"
    },
    {
      "atomicNumber": 23,
      "symbol": "V",
      "name": "Vanadium",
      "group": 5,
      "period": 4,
      "atomicMass": 50.94,
      "electroNegativity": 1.63,
      "ionizationEnergy": 651,
      "density": 6.11,
      "meltingPoint": 2183,
      "boilingPoint": 3680,
      "color": "Color.silver"
    },
    {
      "atomicNumber": 24,
      "symbol": "Cr",
      "name": "Chromium",
      "group": 6,
      "period": 4,
      "atomicMass": 52.0,
      "electroNegativity": 1.66,
      "ionizationEnergy": 653,
      "density": 7.19,
      "meltingPoint": 2180,
      "boilingPoint": 2944,
      "color": "Color.silver"
    },
    {
      "atomicNumber": 25,
      "symbol": "Mn",
      "name": "Manganese",
      "group": 7,
      "period": 4,
      "atomicMass": 54.94,
      "electroNegativity": 1.55,
      "ionizationEnergy": 717,
      "density": 7.21,
      "meltingPoint": 1519,
      "boilingPoint": 2334,
      "color": "Color.silver"
    },
    {
      "atomicNumber": 26,
      "symbol": "Fe",
      "name": "Iron",
      "group": 8,
      "period": 4,
      "atomicMass": 55.85,
      "electroNegativity": 1.83,
      "ionizationEnergy": 763,
      "density": 7.87,
      "meltingPoint": 1811,
      "boilingPoint": 3134,
      "color": "Color.gray"
    },
    {
      "atomicNumber": 27,
      "symbol": "Co",
      "name": "Cobalt",
      "group": 9,
      "period": 4,
      "atomicMass": 58.93,
      "electroNegativity": 1.88,
      "ionizationEnergy": 760,
      "density": 8.86,
      "meltingPoint": 1768,
      "boilingPoint": 3200,
      "color": "Color.silver"
    },
    {
      "atomicNumber": 28,
      "symbol": "Ni",
      "name": "Nickel",
      "group": 10,
      "period": 4,
      "atomicMass": 58.69,
      "electroNegativity": 1.91,
      "ionizationEnergy": 737,
      "density": 8.91,
      "meltingPoint": 1728,
      "boilingPoint": 3186,
      "color": "Color.silver"
    },
    {
      "atomicNumber": 29,
      "symbol": "Cu",
      "name": "Copper",
      "group": 11,
      "period": 4,
      "atomicMass": 63.55,
      "electroNegativity": 1.9,
      "ionizationEnergy": 746,

      "density": 8.96,
      "meltingPoint": 1357.77,
      "boilingPoint": 2835,
      "color": "Color.orange"
    },
    {
      "atomicNumber": 30,
      "symbol": "Zn",
      "name": "Zinc",
      "group": 12,
      "period": 4,
      "atomicMass": 65.38,
      "electroNegativity": 1.65,
      "ionizationEnergy": 906,
      "density": 7.14,
      "meltingPoint": 692.68,
      "boilingPoint": 1180,
      "color": "Color.silver"
    },
    {
      "atomicNumber": 31,
      "symbol": "Ga",
      "name": "Gallium",
      "group": 13,
      "period": 4,
      "atomicMass": 69.72,
      "electroNegativity": 1.81,
      "ionizationEnergy": 579,
      "density": 5.91,
      "meltingPoint": 302.91,
      "boilingPoint": 2673,
      "color": "Color.silver"
    },
    {
      "atomicNumber": 32,
      "symbol": "Ge",
      "name": "Germanium",
      "group": 14,
      "period": 4,
      "atomicMass": 72.63,
      "electroNegativity": 2.01,
      "ionizationEnergy": 762,
      "density": 5.32,
      "meltingPoint": 1211.4,
      "boilingPoint": 3106,
      "color": "Color.gray"
    },
    {
      "atomicNumber": 33,
      "symbol": "As",
      "name": "Arsenic",
      "group": 15,
      "period": 4,
      "atomicMass": 74.92,
      "electroNegativity": 2.18,
      "ionizationEnergy": 947,
      "density": 5.73,
      "meltingPoint": 816.8,
      "boilingPoint": 614,
      "color": "Color.gray"
    },
    {
      "atomicNumber": 34,
      "symbol": "Se",
      "name": "Selenium",
      "group": 16,
      "period": 4,
      "atomicMass": 78.96,
      "electroNegativity": 2.55,
      "ionizationEnergy": 941,
      "density": 4.81,
      "meltingPoint": 220.8,
      "boilingPoint": 685,
      "color": "Color.gray"
    },
    {
      "atomicNumber": 35,
      "symbol": "Br",
      "name": "Bromine",
      "group": 17,
      "period": 4,
      "atomicMass": 79.9,
      "electroNegativity": 2.96,
      "ionizationEnergy": 1143,
      "density": 3.12,
      "meltingPoint": 265.8,
      "boilingPoint": 332,
      "color": "Color.red"
    },
    {
      "atomicNumber": 36,
      "symbol": "Kr",
      "name": "Krypton",
      "group": 18,
      "period": 4,
      "atomicMass": 83.8,
      "electroNegativity": null,
      "ionizationEnergy": 1351,
      "density": 0.003733,
      "meltingPoint": 115.93,
      "boilingPoint": 119.93,
      "color": "Color.color(0.35, 0.68, 0.90)"
    },
    {
      "atomicNumber": 37,
      "symbol": "Rb",
      "name": "Rubidium",
      "group": 1,
      "period": 5,
      "atomicMass": 85.47,
      "electroNegativity": 0.82,
      "ionizationEnergy": 403,
      "density": 1.53,
      "meltingPoint": 312.45,
      "boilingPoint": 961,
      "color": "Color.silver"
    },
    {
      "atomicNumber": 38,
      "symbol": "Sr",
      "name": "Strontium",
      "group": 2,
      "period": 5,
      "atomicMass": 87.62,
      "electroNegativity": 0.95,
      "ionizationEnergy": 549,
      "density": 2.64,
      "meltingPoint": 1050,
      "boilingPoint": 1655,
      "color": "Color.silver"
    },
    {
      "atomicNumber": 39,
      "symbol": "Y",
      "name": "Yttrium",
      "group": 3,
      "period": 5,
      "atomicMass": 88.91,
      "electroNegativity": 1.22,
      "ionizationEnergy": 600,
      "density": 4.47,
      "meltingPoint": 1795,
      "boilingPoint": 3609,
      "color": "Color.silver"
    },
    {
      "atomicNumber": 40,
      "symbol": "Zr",
      "name": "Zirconium",
      "group": 4,
      "period": 5,
      "atomicMass": 91.22,
      "electroNegativity": 1.33,
      "ionizationEnergy": 640,
      "density": 6.51,
      "meltingPoint": 2128,
      "boilingPoint": 4682,
      "color": "Color.silver"
    },
    {
      "atomicNumber": 41,
      "symbol": "Nb",
      "name": "Niobium",
      "group": 5,
      "period": 5,
      "atomicMass": 92.91,
      "electroNegativity": 1.6,
      "ionizationEnergy": 652,
      "density": 8.57,
      "meltingPoint": 2750,
      "boilingPoint": 5017,
      "color": "Color.silver"
    },
    {
      "atomicNumber": 42,
      "symbol": "Mo",
      "name": "Molybdenum",
      "group": 6,
      "period": 5,
      "atomicMass": 95.94,
      "electroNegativity": 2.16,
      "ionizationEnergy": 684,
      "density": 10.22,
      "meltingPoint": 2896,
      "boilingPoint": 4912,
      "color": "Color.silver"
    },
    {
      "atomicNumber": 43,
      "symbol": "Tc",
      "name": "Technetium",
      "group": 7,

      "period": 5,
      "atomicMass": 98,
      "electroNegativity": 1.9,
      "ionizationEnergy": 702,
      "density": 11.5,
      "meltingPoint": 2430,
      "boilingPoint": 4538,
      "color": "Color.silver"
    },
    {
      "atomicNumber": 44,
      "symbol": "Ru",
      "name": "Ruthenium",
      "group": 8,
      "period": 5,
      "atomicMass": 101.07,
      "electroNegativity": 2.2,
      "ionizationEnergy": 710,
      "density": 12.37,
      "meltingPoint": 2607,
      "boilingPoint": 4423,
      "color": "Color.silver"
    },
    {
      "atomicNumber": 45,
      "symbol": "Rh",
      "name": "Rhodium",
      "group": 9,
      "period": 5,
      "atomicMass": 102.91,
      "electroNegativity": 2.28,
      "ionizationEnergy": 720,
      "density": 12.41,
      "meltingPoint": 2237,
      "boilingPoint": 3968,
      "color": "Color.silver"
    },
    {
      "atomicNumber": 46,
      "symbol": "Pd",
      "name": "Palladium",
      "group": 10,
      "period": 5,
      "atomicMass": 106.42,
      "electroNegativity": 2.2,
      "ionizationEnergy": 804,
      "density": 12.02,
      "meltingPoint": 1828.05,
      "boilingPoint": 3236,
      "color": "Color.silver"
    },
    {
      "atomicNumber": 47,
      "symbol": "Ag",
      "name": "Silver",
      "group": 11,
      "period": 5,
      "atomicMass": 107.87,
      "electroNegativity": 1.93,
      "ionizationEnergy": 731,
      "density": 10.49,
      "meltingPoint": 1234.93,
      "boilingPoint": 2435,
      "color": "Color.silver"
    },
    {
      "atomicNumber": 48,
      "symbol": "Cd",
      "name": "Cadmium",
      "group": 12,
      "period": 5,
      "atomicMass": 112.41,
      "electroNegativity": 1.69,
      "ionizationEnergy": 868,
      "density": 8.65,
      "meltingPoint": 594.22,
      "boilingPoint": 1040,
      "color": "Color.silver"
    },
    {
      "atomicNumber": 49,
      "symbol": "In",
      "name": "Indium",
      "group": 13,
      "period": 5,
      "atomicMass": 114.82,
      "electroNegativity": 1.78,
      "ionizationEnergy": 558,
      "density": 7.31,
      "meltingPoint": 429.75,
      "boilingPoint": 2345,
      "color": "Color.silver"
    },
    {
      "atomicNumber": 50,
      "symbol": "Sn",
      "name": "tin",
      "group": 14,
      "period": 5,
      "atomicMass": 118.71,
      "electroNegativity": 1.96,
      "ionizationEnergy": 709,
      "density": 7.287,
      "meltingPoint": 505.08,
      "boilingPoint": 2875,
      "color": "Color.silver"
    },
    {
      "atomicNumber": 51,
      "symbol": "Sb",
      "name": "Antimony",
      "group": 15,
      "period": 5,
      "atomicMass": 121.76,
      "electroNegativity": 2.05,
      "ionizationEnergy": 834,
      "density": 6.685,
      "meltingPoint": 903.78,
      "boilingPoint": 1860,
      "color": "Color.silver"
    },
    {
      "atomicNumber": 52,
      "symbol": "Te",
      "name": "Tellurium",
      "group": 16,
      "period": 5,
      "atomicMass": 127.6,
      "electroNegativity": 2.1,
      "ionizationEnergy": 869,
      "density": 6.24,
      "meltingPoint": 722.66,
      "boilingPoint": 1261,
      "color": "Color.silver"
    },
    {
      "atomicNumber": 53,
      "symbol": "I",
      "name": "Iodine",
      "group": 17,
      "period": 5,
      "atomicMass": 126.9,
      "electroNegativity": 2.66,
      "ionizationEnergy": 1008,
      "density": 4.93,
      "meltingPoint": 386.85,
      "boilingPoint": 457.4,
      "color": "Color.violet"
    },
    {
      "atomicNumber": 54,
      "symbol": "Xe",
      "name": "Xenon",
      "group": 18,
      "period": 5,
      "atomicMass": 131.29,
      "electroNegativity": null,
      "ionizationEnergy": 1170,
      "density": 0.005887,
      "meltingPoint": 161.4,
      "boilingPoint": 165.03,
      "color": "Color.colorless"
    },
    {
      "atomicNumber": 55,
      "symbol": "Cs",
      "name": "Cesium",
      "group": 1,
      "period": 6,
      "atomicMass": 132.91,
      "electroNegativity": 0.79,
      "ionizationEnergy": 376,
      "density": 1.873,
      "meltingPoint": 301.59,
      "boilingPoint": 944,
      "color": "Color.gold"
    },
    {
      "atomicNumber": 56,
      "symbol": "Ba",
      "name": "Barium",
      "group": 2,
      "period": 6,
      "atomicMass": 137.33,
      "electroNegativity": 0.89,
      "ionizationEnergy": 503,
      "density": 3.51,
      "meltingPoint": 1002,
      "boilingPoint": 2170,
      "color": "Color.silver"
    },
    {
      "atomicNumber": 57,
      "symbol": "La",
      "name": "Lanthanum",
      "group": 3,
      "period": 6,
      "atomicMass": 138.91,
      "electroNegativity": 1.1,
      "ionizationEnergy": 538,
      "density": 6.162,
      "meltingPoint": 1193,
      "boilingPoint": 3737,
      "color": "Color.silver"
    },
    {
      "atomicNumber": 58,
      "symbol": "Ce",
      "name": "Cerium",
      "group": null,
      "period": 6,
      "atomicMass": 140.12,
      "electroNegativity": 1.12,
      "ionizationEnergy": 534,
      "density": 6.657,
      "meltingPoint": 1068,
      "boilingPoint": 3716,
      "color": "Color.silver"
    },
    {
      "atomicNumber": 59,
      "symbol": "Pr",
      "name": "Praseodymium",
      "group": null,
      "period": 6,
      "atomicMass": 140.91,
      "electroNegativity": 1.13,
      "ionizationEnergy": 527,
      "density": 6.77,
      "meltingPoint": 1208,
      "boilingPoint": 3563,
      "color": "Color.silver"
    },
    {
      "atomicNumber": 60,
      "symbol": "Nd",
      "name": "Neodymium",
      "group": null,
      "period": 6,
      "atomicMass": 144.24,
      "electroNegativity": 1.14,
      "ionizationEnergy": 533,
      "density": 7.01,
      "meltingPoint": 1297,
      "boilingPoint": 3347,
      "color": "Color.silver"
    },
    {
      "atomicNumber": 61,
      "symbol": "Pm",
      "name": "Promethium",
      "group": null,
      "period": 6,
      "atomicMass": 145,
      "electroNegativity": 1.13,
      "ionizationEnergy": 540,
      "density": 7.22,
      "meltingPoint": 1315,
      "boilingPoint": 3273,
      "color": "Color.silver"
    },
    {
      "atomicNumber": 62,
      "symbol": "Sm",
      "name": "Samarium",
      "group": null,
      "period": 6,
      "atomicMass": 150.36,
      "electroNegativity": 1.17,
      "ionizationEnergy": 545,
      "density": 7.52,
      "meltingPoint": 1345,
      "boilingPoint": 2067,
      "color": "Color.silver"
    },
    {
      "atomicNumber": 63,
      "symbol": "Eu",
      "name": "Europium",
      "group": null,
      "period": 6,
      "atomicMass": 151.96,
      "electroNegativity": 1.2,
      "ionizationEnergy": 547,
      "density": 5.243,
      "meltingPoint": 1095,
      "boilingPoint": 1800,
      "color": "Color.silver"
    },
    {
      "atomicNumber": 64,
      "symbol": "Gd",
      "name": "Gadolinium",
      "group": null,
      "period": 6,
      "atomicMass": 157.25,
      "electroNegativity": 1.2,
      "ionizationEnergy": 593,
      "density": 7.9,
      "meltingPoint": 1585,
      "boilingPoint": 3523,
      "color": "Color.silver"
    },
    {
      "atomicNumber": 65,
      "symbol": "Tb",
      "name": "Terbium",
      "group": null,
      "period": 6,
      "atomicMass": 158.93,
      "electroNegativity": 1.2,
      "ionizationEnergy": 566,
      "density": 8.25,
      "meltingPoint": 1629,
      "boilingPoint": 3503,
      "color": "Color.silver"
    },
    {
      "atomicNumber": 66,
      "symbol": "Dy",
      "name": "Dysprosium",
      "group": null,
      "period": 6,
      "atomicMass": 162.5,
      "electroNegativity": 1.22,
      "ionizationEnergy": 573,
      "density": 8.55,
      "meltingPoint": 1680,
      "boilingPoint": 2840,
      "color": "Color.silver"
    },
    {
      "atomicNumber": 67,
      "symbol": "Ho",
      "name": "Holmium",
      "group": null,
      "period": 6,
      "atomicMass": 164.93,
      "electroNegativity": 1.23,
      "ionizationEnergy": 581,
      "density": 8.79,
      "meltingPoint": 1734,
      "boilingPoint": 2993,
      "color": "Color.silver"
    },
    {
      "atomicNumber": 68,
      "symbol": "Er",
      "name": "Erbium",
      "group": null,
      "period": 6,
      "atomicMass": 167.26,
      "electroNegativity": 1.24,
      "ionizationEnergy": 589,
      "density": 9.07,
      "meltingPoint": 1802,
      "boilingPoint": 3141,
      "color": "Color.silver"
    },
    {
      "atomicNumber": 69,
      "symbol": "Tm",
      "name": "Thulium",
      "group": null,
      "period": 6,
      "atomicMass": 168.93,
      "electroNegativity": 1.25,
      "ionizationEnergy": 597,
      "density": 9.32,
      "meltingPoint": 1818,
      "boilingPoint": 2223,
      "color": "Color.silver"
    },
    {
      "atomicNumber": 70,
      "symbol": "Yb",
      "name": "Ytterbium",
      "group": null,
      "period": 6,
      "atomicMass": 173.05,
      "electroNegativity": 1.1,
      "ionizationEnergy": 603,
      "density": 6.57,
      "meltingPoint": 1092,
      "boilingPoint": 1469,
      "color": "Color.silver"
    },
    {
      "atomicNumber": 71,
      "symbol": "Lu",
      "name": "Lutetium",
      "group": null,
      "period": 6,
      "atomicMass": 174.97,
      "electroNegativity": 1.27,
      "ionizationEnergy": 524,
      "density": 9.84,
      "meltingPoint": 1936,
      "boilingPoint": 3675,
      "color": "Color.silver"
    },
    {
      "atomicNumber": 72,
      "symbol": "Hf",
      "name": "Hafnium",
      "group": 4,
      "period": 6,
      "atomicMass": 178.49,
      "electroNegativity": 1.3,
      "ionizationEnergy": 659,
      "density": 13.31,
      "meltingPoint": 2506,
      "boilingPoint": 4876,
      "color": "Color.silver"
    },
    {
      "atomicNumber": 73,
      "symbol": "Ta",
      "name": "Tantalum",
      "group": 5,
      "period": 6,
      "atomicMass": 180.95,
      "electroNegativity": 1.5,
      "ionizationEnergy": 761,
      "density": 16.65,
      "meltingPoint": 3290,
      "boilingPoint": 5731,
      "color": "Color.silver"
    },
    {
      "atomicNumber": 74,
      "symbol": "W",
      "name": "Tungsten",
      "group": 6,
      "period": 6,
      "atomicMass": 183.84,
      "electroNegativity": 2.36,
      "ionizationEnergy": 770,
      "density": 19.25,
      "meltingPoint": 3695,
      "boilingPoint": 5828,
      "color": "Color.silver"
    },
    {
      "atomicNumber": 75,
      "symbol": "Re",
      "name": "Rhenium",
      "group": 7,
      "period": 6,
      "atomicMass": 186.21,
      "electroNegativity": 1.9,
      "ionizationEnergy": 760,
      "density": 21.02,
      "meltingPoint": 3459,
      "boilingPoint": 5869,
      "color": "Color.silver"
    },
    {
      "atomicNumber": 76,
      "symbol": "Os",
      "name": "Osmium",
      "group": 8,
      "period": 6,
      "atomicMass": 190.23,
      "electroNegativity": 2.2,
      "ionizationEnergy": 840,
      "density": 22.61,
      "meltingPoint": 3306,
      "boilingPoint": 5285,
      "color": "Color.silver"
    },
    {
      "atomicNumber": 77,
      "symbol": "Ir",
      "name": "Iridium",
      "group": 9,
      "period": 6,
      "atomicMass": 192.22,
      "electroNegativity": 2.2,
      "ionizationEnergy": 880,
      "density": 22.56,
      "meltingPoint": 2719,

      "boilingPoint": 4701,
      "color": "Color.silver"
    },
    {
      "atomicNumber": 79,
      "symbol": "Au",
      "name": "Gold",
      "group": 11,
      "period": 6,
      "atomicMass": 196.97,
      "electroNegativity": 2.54,
      "ionizationEnergy": 890,
      "density": 19.32,
      "meltingPoint": 1337,
      "boilingPoint": 3129,
      "color": "Color.gold"
    },
    {
      "atomicNumber": 80,
      "symbol": "Hg",
      "name": "Mercury",
      "group": 12,
      "period": 6,
      "atomicMass": 200.59,
      "electroNegativity": 2.0,
      "ionizationEnergy": 1007,
      "density": 13.53,
      "meltingPoint": 234,
      "boilingPoint": 630,
      "color": "Color.silver"
    },
    {
      "atomicNumber": 81,
      "symbol": "Tl",
      "name": "Thallium",
      "group": 13,
      "period": 6,
      "atomicMass": 204.38,
      "electroNegativity": 2.04,
      "ionizationEnergy": 589,
      "density": 11.85,
      "meltingPoint": 577,
      "boilingPoint": 1746,
      "color": "Color.silver"
    },
    {
      "atomicNumber": 82,
      "symbol": "Pb",
      "name": "Lead",
      "group": 14,
      "period": 6,
      "atomicMass": 207.2,
      "electroNegativity": 2.33,
      "ionizationEnergy": 716,
      "density": 11.34,
      "meltingPoint": 600,
      "boilingPoint": 2022,
      "color": "Color.silver"
    },
    {
      "atomicNumber": 83,
      "symbol": "Bi",
      "name": "Bismuth",
      "group": 15,
      "period": 6,
      "atomicMass": 208.98,
      "electroNegativity": 2.02,
      "ionizationEnergy": 703,
      "density": 9.78,
      "meltingPoint": 271,
      "boilingPoint": 1564,
      "color": "Color.silver"
    },
    {
      "atomicNumber": 84,
      "symbol": "Po",
      "name": "Polonium",
      "group": 16,
      "period": 6,
      "atomicMass": 209,
      "electroNegativity": 2.0,
      "ionizationEnergy": 812,
      "density": 9.2,
      "meltingPoint": 254,
      "boilingPoint": 962,
      "color": "Color.silver"
    },
    {
      "atomicNumber": 85,
      "symbol": "At",
      "name": "Astatine",
      "group": 17,
      "period": 6,
      "atomicMass": 210,
      "electroNegativity": 2.2,
      "ionizationEnergy": 920,
      "density": 7,
      "meltingPoint": 302,
      "boilingPoint": 610,
      "color": "Color.darkViolet"
    },
    {
      "atomicNumber": 86,
      "symbol": "Rn",
      "name": "Radon",
      "group": 18,
      "period": 6,
      "atomicMass": 222,
      "electroNegativity": null,
      "ionizationEnergy": 1037,
      "density": 0.00973,
      "meltingPoint": -71,
      "boilingPoint": -61,
      "color": "Color.deepSkyBlue"
    },
    {
      "atomicNumber": 87,
      "symbol": "Fr",
      "name": "Francium",
      "group": 1,
      "period": 7,
      "atomicMass": 223,
      "electroNegativity": 0.7,
      "ionizationEnergy": 380,
      "density": 1.87,
      "meltingPoint": 27,
      "boilingPoint": 677,
      "color": "Color.silver"
    },
    {
      "atomicNumber": 88,
      "symbol": "Ra",
      "name": "Radium",
      "group": 2,
      "period": 7,
      "atomicMass": 226,
      "electroNegativity": 0.9,
      "ionizationEnergy": 509,
      "density": 5.5,
      "meltingPoint": 700,
      "boilingPoint": 1737,
      "color": "Color.silver"
    },
    {
      "atomicNumber": 89,
      "symbol": "Ac",
      "name": "Actinium",
      "group": 3,
      "period": 7,
      "atomicMass": 227,
      "electroNegativity": 1.1,
      "ionizationEnergy": 499,
      "density": 10.07,
      "meltingPoint": 1050,
      "boilingPoint": 3198,
      "color": "Color.silver"
    },
    {
      "atomicNumber": 90,
      "symbol": "Th",
      "name": "Thorium",
      "group": null,
      "period": 7,
      "atomicMass": 232.04,
      "electroNegativity": 1.3,
      "ionizationEnergy": 587,
      "density": 11.72,
      "meltingPoint": 1750,
      "boilingPoint": 4788,
      "color": "Color.silver"
    },
    {
      "atomicNumber": 91,
      "symbol": "Pa",
      "name": "Protactinium",
      "group": null,
      "period": 7,
      "atomicMass": 231.04,
      "electroNegativity": 1.5,
      "ionizationEnergy": 568,
      "density": 15.37,
      "meltingPoint": 1572,
      "boilingPoint": 4000,
      "color": "Color.silver"
    },
    {
      "atomicNumber": 92,
      "symbol": "U",
      "name": "Uranium",
      "group": null,
      "period": 7,
      "atomicMass": 238.03,
      "electroNegativity": 1.38,
      "ionizationEnergy": 597,
      "density": 18.95,
      "meltingPoint": 1135,
      "boilingPoint": 4131,
      "color": "Color.s"
    },

    {
      "atomicNumber": 93,
      "symbol": "Np",
      "name": "Neptunium",
      "group": null,
      "period": 7,
      "atomicMass": 237,
      "electroNegativity": 1.36,
      "ionizationEnergy": 604,
      "density": 20.25,
      "meltingPoint": 644,
      "boilingPoint": 3902,
      "color": "Color.silver"
    },
    {
      "atomicNumber": 94,
      "symbol": "Pu",
      "name": "Plutonium",
      "group": null,
      "period": 7,
      "atomicMass": 244,
      "electroNegativity": 1.28,
      "ionizationEnergy": 585,
      "density": 19.84,
      "meltingPoint": 640,
      "boilingPoint": 3235,
      "color": "Color.silver"
    },
    {
      "atomicNumber": 95,
      "symbol": "Am",
      "name": "Americium",
      "group": null,
      "period": 7,
      "atomicMass": 243,
      "electroNegativity": 1.13,
      "ionizationEnergy": 578,
      "density": 13.67,
      "meltingPoint": 994,
      "boilingPoint": 2607,
      "color": "Color.silver"
    },
    {
      "atomicNumber": 96,
      "symbol": "Cm",
      "name": "Curium",
      "group": null,
      "period": 7,
      "atomicMass": 247,
      "electroNegativity": 1.28,
      "ionizationEnergy": 581,
      "density": 13.51,
      "meltingPoint": 1340,
      "boilingPoint": 3110,
      "color": "Color.silver"
    },
    {
      "atomicNumber": 97,
      "symbol": "Bk",
      "name": "Berkelium",
      "group": null,
      "period": 7,
      "atomicMass": 247,
      "electroNegativity": 1.3,
      "ionizationEnergy": 601,
      "density": 14.78,
      "meltingPoint": 986,
      "boilingPoint": 2627,
      "color": "Color.silver"
    },
    {
      "atomicNumber": 98,
      "symbol": "Cf",
      "name": "Californium",
      "group": null,
      "period": 7,
      "atomicMass": 251,
      "electroNegativity": 1.3,
      "ionizationEnergy": 608,
      "density": 15.1,
      "meltingPoint": 900,
      "boilingPoint": 1470,
      "color": "Color.silver"
    },
    {
      "atomicNumber": 99,
      "symbol": "Es",
      "name": "Einsteinium",
      "group": null,
      "period": 7,
      "atomicMass": 252,
      "electroNegativity": 1.3,
      "ionizationEnergy": 619,
      "density": 8.84,
      "meltingPoint": 860,
      "boilingPoint": 1130,
      "color": "Color.silver"
    },
    {
      "atomicNumber": 100,
      "symbol": "Fm",
      "name": "Fermium",
      "group": null,
      "period": 7,
      "atomicMass": 257,
      "electroNegativity": 1.3,
      "ionizationEnergy": 627,
      "density": 9.7,
      "meltingPoint": 1527,
      "boilingPoint": "unknown",
      "color": "Color.silver"
    },
    {
      "atomicNumber": 101,
      "symbol": "Md",
      "name": "Mendelevium",
      "group": null,
      "period": 7,
      "atomicMass": 258,
      "electroNegativity": 1.3,
      "ionizationEnergy": 635,
      "density": 10.3,
      "meltingPoint": 827,
      "boilingPoint": "unknown",
      "color": "Color.silver"
    },
    {
      "atomicNumber": 102,
      "symbol": "No",
      "name": "Nobelium",
      "group": null,
      "period": 7,
      "atomicMass": 259,
      "electroNegativity": 1.3,
      "ionizationEnergy": 642,
      "density": 9.9,
      "meltingPoint": 827,
      "boilingPoint": "unknown",
      "color": "Color.silver"
    },
    {
      "atomicNumber": 103,
      "symbol": "Lr",
      "name": "Lawrencium",
      "group": 3,
      "period": 7,
      "atomicMass": 262,
      "electroNegativity": 1.3,
      "ionizationEnergy": 470,
      "density": 15.6,
      "meltingPoint": 1627,
      "boilingPoint": "unknown",
      "color": "Color.silver"
    },
    {
      "atomicNumber": 104,
      "symbol": "Rf",
      "name": "Rutherfordium",
      "group": 4,
      "period": 7,
      "atomicMass": 261,
      "electroNegativity": 1.3,
      "ionizationEnergy": 580,
      "density": 23.2,
      "meltingPoint": 2400,
      "boilingPoint": "unknown",
      "color": "Color.silver"
    },
    {
      "atomicNumber": 105,
      "symbol": "Db",
      "name": "Dubnium",
      "group": 5,
      "period": 7,
      "atomicMass": 262,
      "electroNegativity": 1.3,
      "ionizationEnergy": 670,
      "density": 29.3,
      "meltingPoint": 3100,
      "boilingPoint": "unknown",
      "color": "Color.silver"
    },
    {
      "atomicNumber": 106,
      "symbol": "Sg",
      "name": "Seaborgium",
      "group": 6,
      "period": 7,
      "atomicMass": 266,
      "electroNegativity": 1.3,
      "ionizationEnergy": 685,
      "density": 35,
      "meltingPoint": 2237,
      "boilingPoint": "unknown",
      "color": "Color.silver"
    },
    {
      "atomicNumber": 107,
      "symbol": "Bh",
      "name": "Bohrium",
      "group": 7,
      "period": 7,
      "atomicMass": 264,
      "electroNegativity": 1.3,
      "ionizationEnergy": 700,
      "density": 37.1,
      "meltingPoint": 2673,
      "boilingPoint": "unknown",
      "color": "Color.silver"
    },
    {
      "atomicNumber": 108,
      "symbol": "Hs",
      "name": "Hassium",
      "group": 8,
      "period": 7,
      "atomicMass": 267,
      "electroNegativity": 1.3,
      "ionizationEnergy": 760,
      "density": 41,
      "meltingPoint": 126,
      "boilingPoint": "unknown",
      "color": "Color.silver"
    },
    {
      "atomicNumber": 109,
      "symbol": "Mt",
      "name": "Meitnerium",
      "group": 9,
      "period": 7,
      "atomicMass": 268,
      "electroNegativity": 1.3,
      "ionizationEnergy": 800,
      "density": 37.4,
      "meltingPoint": 1800,
      "boilingPoint": "unknown",
      "color": "Color.silver"
    },
    {
      "atomicNumber": 110,
      "symbol": "Ds",
      "name": "Darmstadtium",
      "group": 10,
      "period": 7,
      "atomicMass": 271,
      "electroNegativity": 1.3,
      "ionizationEnergy": 870,
      "density": 34.8,
      "meltingPoint": 340,
      "boilingPoint": "unknown",
      "color": "Color.silver"
    },
    {
      "atomicNumber": 111,
      "symbol": "Rg",
      "name": "Roentgenium",
      "group": 11,
      "period": 7,
      "atomicMass": 272,
      "electroNegativity": 1.3,
      "ionizationEnergy": 880,
      "density": 28.7,
      "meltingPoint": 2800,
      "boilingPoint": "unknown",
      "color": "Color.silver"
    },
    {
      "atomicNumber": 112,
      "symbol": "Cn",
      "name": "Copernicium",
      "group": 12,
      "period": 7,
      "atomicMass": 277,
      "electroNegativity": 1.3,
      "ionizationEnergy": 1120,
      "density": 23.7,
      "meltingPoint": 283,
      "boilingPoint": 357,
      "color": "Color.silver"
    },
    {
      "atomicNumber": 113,
      "symbol": "Nh",
      "name": "Nihonium",
      "group": 13,
      "period": 7,
      "atomicMass": 284,
      "electroNegativity": 1.3,
      "ionizationEnergy": 700,
      "density": 16,
      "meltingPoint": 700,
      "boilingPoint": "unknown",
      "color": "Color.silver"
    },
    {
      "atomicNumber": 114,
      "symbol": "Fl",
      "name": "Flerovium",
      "group": 14,
      "period": 7,
      "atomicMass": 289,

      "electroNegativity": 1.3,
      "ionizationEnergy": 760,
      "density": 14,
      "meltingPoint": 340,
      "boilingPoint": "unknown",
      "color": "Color.silver"
    },
    {
      "atomicNumber": 115,
      "symbol": "Mc",
      "name": "Moscovium",
      "group": 15,
      "period": 7,
      "atomicMass": 288,
      "electroNegativity": 1.3,
      "ionizationEnergy": 700,
      "density": 13.5,
      "meltingPoint": 700,
      "boilingPoint": "unknown",
      "color": "Color.silver"
    },
    {
      "atomicNumber": 116,
      "symbol": "Lv",
      "name": "Livermorium",
      "group": 16,
      "period": 7,
      "atomicMass": 293,
      "electroNegativity": 1.3,
      "ionizationEnergy": 730,
      "density": 12.9,
      "meltingPoint": 673,
      "boilingPoint": "unknown",
      "color": "Color.silver"
    },
    {
      "atomicNumber": 117,
      "symbol": "Ts",
      "name": "Tennessine",
      "group": 17,
      "period": 7,
      "atomicMass": 294,
      "electroNegativity": 1.3,
      "ionizationEnergy": 850,
      "density": 7.2,
      "meltingPoint": 723,
      "boilingPoint": "unknown",
      "color": "Color.silver"
    },
    {
      "atomicNumber": 118,
      "symbol": "Og",
      "name": "Oganesson",
      "group": 18,
      "period": 7,
      "atomicMass": 294,
      "electroNegativity": 1.3,
      "ionizationEnergy": 840,
      "density": 4.9,
      "meltingPoint": 350,
      "boilingPoint": "unknown",
      "color": "Color.silver"
    }
  ]
}
